 ---------------------------------------------
 #p test geom=modela hf pop=full output=matrix
 ---------------------------------------------

 (Enter /Users/hhratchian/.gaussian/gdv-current/gdv/l101.exe)
 --------------------------------------
 test002: HF/STO-3G calculation of H2O.
 --------------------------------------
 Charge =  0 Multiplicity = 1

                         Standard orientation:
 ---------------------------------------------------------------------
 Center     Atomic      Atomic             Coordinates (Angstroms)
 Number     Number       Type             X           Y           Z
 ---------------------------------------------------------------------
      1          8           0        0.000000    0.000000    0.110851
      2          1           0        0.000000    0.783837   -0.443405
      3          1           0        0.000000   -0.783837   -0.443405
 ---------------------------------------------------------------------

 SCF Done:  E(RHF) =  -74.9607232751     A.U. after    7 cycles

 The electronic state is 1-A1.
 Alpha  occ. eigenvalues --  -20.23454  -1.26079  -0.62393  -0.44051  -0.38697
 Alpha virt. eigenvalues --    0.59296   0.75410

 Mulliken charges:
               1
     1  O   -0.372485
     2  H    0.186243
     3  H    0.186243
 Sum of Mulliken charges =   0.00000

 Dipole moment (field-independent basis, Debye):
    X=              0.0000    Y=              0.0000    Z=             -1.6890  Tot=              1.6890
 Quadrupole moment (field-independent basis, Debye-Ang):
   XX=             -6.0921   YY=             -4.1965   ZZ=             -5.4605
   XY=              0.0000   XZ=              0.0000   YZ=              0.0000

 Normal termination of Gaussian DV at Wed Jun 12 20:28:58 2019.
